 Q-Chem 5.2, Q-Chem, Inc., Pleasanton, CA (2019)
 Q-Chem 5.2.2 for Intel X86 EM64T Linux

User input:
--------------------------------------------------------------
$molecule
0 1
H	        0.0000000000         0.0000000000         0.0000000000
H	        0.0000000000         0.0000000000         0.9000000000
$end
$rem
jobtype opt
method b3lyp
basis 6-31g*
thresh 14
scf_convergence 8
max_scf_cycles 400
gui 2
set_iter 30
RPA False
mem_total 2000
mem_static 64
n_frozen_core fc
n_frozen_virtual 0
mom_start False
skip_scfman False
geom_opt_coords -1
geom_opt_tol_gradient 300
geom_opt_tol_displacement 1200
geom_opt_tol_energy 100
geom_opt_max_cycles 600
$end

--------------------------------------------------------------

    5      -1.1633207837      6.25e-11  Convergence criterion met
 Total energy in the final basis set =       -1.1633207837
    4      -1.1753848553      8.10e-09  Convergence criterion met
 Total energy in the final basis set =       -1.1753848553
    4      -1.1754443132      7.57e-13  Convergence criterion met
 Total energy in the final basis set =       -1.1754443132

             Standard Nuclear Orientation (Angstroms)
    I     Atom           X                Y                Z
 ----------------------------------------------------------------
    1      H       0.0000000000     0.0000000000    -0.3715408923
    2      H       0.0000000000     0.0000000000     0.3715408923
 ----------------------------------------------------------------

    4      -1.1754842018      9.25e-13  Convergence criterion met
 Total energy in the final basis set =       -1.1754842018
 Final energy is   -1.17548420176954
 **  OPTIMIZATION CONVERGED  **

                    Orbital Energies (a.u.)
 --------------------------------------------------------------

 Alpha MOs
 -- Occupied --
 -0.4339

          Ground-State Mulliken Net Atomic Charges

     Atom                 Charge (a.u.)
  ----------------------------------------
      1 H                    -0.000000
      2 H                     0.000000
  ----------------------------------------
  Sum of atomic charges =     0.000000

                    Cartesian Multipole Moments
 -----------------------------------------------------------------
    Charge (ESU x 10^10)
                 0.0000
    Dipole Moment (Debye)
         X       0.0000      Y       0.0000      Z       0.0000
       Tot       0.0000
    Quadrupole Moments (Debye-Ang)
        XX      -2.0104     XY       0.0000     YY      -2.0104
        XZ       0.0000     YZ       0.0000     ZZ      -1.5857

 Total job time:  5.44s(wall), 19.70s(cpu)
        *  Thank you very much for using Q-Chem.  Have a nice day.  *
